LAMMPS (3 Nov 2022)
OMP_NUM_THREADS environment is not set. Defaulting to 1 thread. (src/src/comm.cpp:98)
  using 1 OpenMP thread(s) per MPI task

variable      x index 1
variable      y index 1
variable      z index 1

variable      xx equal 20*$x
variable      xx equal 20*1
variable      yy equal 20*$y
variable      yy equal 20*1
variable      zz equal 20*$z
variable      zz equal 20*1

units         lj
atom_style    atomic

lattice       fcc 0.8442
Lattice spacing in x,y,z = 1.6795962 1.6795962 1.6795962
region        box block 0 ${xx} 0 ${yy} 0 ${zz}
region        box block 0 20 0 ${yy} 0 ${zz}
region        box block 0 20 0 20 0 ${zz}
region        box block 0 20 0 20 0 20
create_box    1 box
Created orthogonal box = (0 0 0) to (33.591924 33.591924 33.591924)
  4 by 5 by 6 MPI processor grid
create_atoms  1 box
Created 32000 atoms
  using lattice units in orthogonal box = (0 0 0) to (33.591924 33.591924 33.591924)
  create_atoms CPU = 0.002 seconds
mass          1 1.0

velocity      all create 1.44 87287 loop geom

pair_style    lj/cut 2.5
pair_coeff    1 1 1.0 1.0 2.5

neighbor      0.3 bin
neigh_modify  delay 0 every 20 check no

fix           1 all nve

run           1000
Generated 0 of 0 mixed pair_coeff terms from geometric mixing rule
Neighbor list info ...
  update: every = 20 steps, delay = 0 steps, check = no
  max neighbors/atom: 2000, page size: 100000
  master list distance cutoff = 2.8
  ghost atom cutoff = 2.8
  binsize = 1.4, bins = 24 24 24
  1 neighbor lists, perpetual/occasional/extra = 1 0 0
  (1) pair lj/cut, perpetual
      attributes: half, newton on
      pair build: half/bin/atomonly/newton
      stencil: half/bin/3d
      bin: standard
Per MPI rank memory allocation (min/avg/max) = 2.621 | 2.624 | 2.631 Mbytes
   Step          Temp          E_pair         E_mol          TotEng         Press
         0   1.44          -6.7733681      0             -4.6134356     -5.0197073
      1000   0.70325873    -5.6750827      0             -4.6202276      0.71125871
Loop time of 0.523992 on 120 procs for 1000 steps with 32000 atoms

Performance: 824440.628 tau/day, 1908.427 timesteps/s, 61.070 Matom-step/s
99.4% CPU use with 120 MPI tasks x 1 OpenMP threads

MPI task timing breakdown:
Section |  min time  |  avg time  |  max time  |%varavg| %total
---------------------------------------------------------------
Pair    | 0.092143   | 0.10239    | 0.11345    |   1.3 | 19.54
Neigh   | 0.017684   | 0.019219   | 0.025398   |   0.7 |  3.67
Comm    | 0.38655    | 0.39922    | 0.41108    |   0.7 | 76.19
Output  | 0.0001058  | 0.00018335 | 0.00025073 |   0.0 |  0.03
Modify  | 0.0019469  | 0.0021171  | 0.0022963  |   0.2 |  0.40
Other   |            | 0.000859   |            |       |  0.16

Nlocal:        266.667 ave         285 max         248 min
Histogram: 1 4 9 20 23 29 15 14 4 1
Nghost:        1369.83 ave        1410 max        1337 min
Histogram: 3 7 16 29 25 16 8 11 2 3
Neighs:        9997.82 ave       10919 max        9031 min
Histogram: 2 1 13 12 32 27 12 11 7 3

Total # of neighbors = 1199738
Ave neighs/atom = 37.491813
Neighbor list builds = 50
Dangerous builds not checked
Total wall time: 0:00:00
