# generated by aiida_lammps

2 atoms
2 atom types

0.0         3.8325187500 xlo xhi
0.0         3.3190586000 ylo yhi
0.0         3.1292384600 zlo zhi
        1.9162593800         1.9162593800         1.1063528700 xy xz yz

Masses

1        55.8450000000 
2        32.0650000000 

Atoms

1 1         0.0000000000         0.0000000000         0.0000000000
2 2         5.7487781300         3.3190586000         2.3469288400
