# generated by aiida_lammps

2 atoms
2 atom types

0.0         2.8481160000 xlo xhi
0.0         2.8481160000 ylo yhi
0.0         2.8481160000 zlo zhi
        0.0000000000         0.0000000000         0.0000000000 xy xz yz

Masses

1        55.8450000000 
2        55.8450000000 

Atoms

1 1         0.0000000000         0.0000000000         0.0000000000
2 2         1.4240580000         1.4240580000         1.4240580000
