ITEM: TIMESTEP
0
ITEM: NUMBER OF ATOMS
2
ITEM: BOX BOUNDS xy xz yz pp pp pp
-1.9938 3.98759 -1.9938
0 3.45336 0
0 6.53839 0
ITEM: ATOMS element x y z 
  Ar ˆ—Õ]ÿ     2.5378973498     1.6730118203 
  Ar ˆ—Õ]ÿ     0.9154261166     4.8653821797 
ITEM: TIMESTEP
10
ITEM: NUMBER OF ATOMS
2
ITEM: BOX BOUNDS xy xz yz pp pp pp
-1.9938 3.98759 -1.9938
0 3.45336 0
0 6.53839 0
ITEM: ATOMS element x y z 
  Ar X—Õ]ÿ     2.5614655203     1.6768531523 
  Ar X—Õ]ÿ     0.8918579461     4.8615408477 
ITEM: TIMESTEP
20
ITEM: NUMBER OF ATOMS
2
ITEM: BOX BOUNDS xy xz yz pp pp pp
-1.9938 3.98759 -1.9938
0 3.45336 0
0 6.53839 0
ITEM: ATOMS element x y z 
  Ar X—Õ]ÿ     2.5850336909     1.6806944843 
  Ar X—Õ]ÿ     0.8682897755     4.8576995157 
ITEM: TIMESTEP
30
ITEM: NUMBER OF ATOMS
2
ITEM: BOX BOUNDS xy xz yz pp pp pp
-1.9938 3.98759 -1.9938
0 3.45336 0
0 6.53839 0
ITEM: ATOMS element x y z 
  Ar X—Õ]ÿ     2.6086018614     1.6845358163 
  Ar X—Õ]ÿ     0.8447216050     4.8538581837 
ITEM: TIMESTEP
40
ITEM: NUMBER OF ATOMS
2
ITEM: BOX BOUNDS xy xz yz pp pp pp
-1.9938 3.98759 -1.9938
0 3.45336 0
0 6.53839 0
ITEM: ATOMS element x y z 
  Ar X—Õ]ÿ     2.6321700320     1.6883771484 
  Ar X—Õ]ÿ     0.8211534344     4.8500168516 
ITEM: TIMESTEP
50
ITEM: NUMBER OF ATOMS
2
ITEM: BOX BOUNDS xy xz yz pp pp pp
-1.9938 3.98759 -1.9938
0 3.45336 0
0 6.53839 0
ITEM: ATOMS element x y z 
  Ar X—Õ]ÿ     2.6557382025     1.6922184804 
  Ar X—Õ]ÿ     0.7975852639     4.8461755196 
ITEM: TIMESTEP
60
ITEM: NUMBER OF ATOMS
2
ITEM: BOX BOUNDS xy xz yz pp pp pp
-1.9938 3.98759 -1.9938
0 3.45336 0
0 6.53839 0
ITEM: ATOMS element x y z 
  Ar X—Õ]ÿ     2.6793063731     1.6960598124 
  Ar X—Õ]ÿ     0.7740170933     4.8423341876 
ITEM: TIMESTEP
70
ITEM: NUMBER OF ATOMS
2
ITEM: BOX BOUNDS xy xz yz pp pp pp
-1.9938 3.98759 -1.9938
0 3.45336 0
0 6.53839 0
ITEM: ATOMS element x y z 
  Ar X—Õ]ÿ     2.7028745436     1.6999011444 
  Ar X—Õ]ÿ     0.7504489228     4.8384928556 
ITEM: TIMESTEP
80
ITEM: NUMBER OF ATOMS
2
ITEM: BOX BOUNDS xy xz yz pp pp pp
-1.9938 3.98759 -1.9938
0 3.45336 0
0 6.53839 0
ITEM: ATOMS element x y z 
  Ar X—Õ]ÿ     2.7264427142     1.7037424765 
  Ar X—Õ]ÿ     0.7268807522     4.8346515235 
ITEM: TIMESTEP
90
ITEM: NUMBER OF ATOMS
2
ITEM: BOX BOUNDS xy xz yz pp pp pp
-1.9938 3.98759 -1.9938
0 3.45336 0
0 6.53839 0
ITEM: ATOMS element x y z 
  Ar X—Õ]ÿ     2.7500108847     1.7075838085 
  Ar X—Õ]ÿ     0.7033125817     4.8308101915 
ITEM: TIMESTEP
100
ITEM: NUMBER OF ATOMS
2
ITEM: BOX BOUNDS xy xz yz pp pp pp
-1.9938 3.98759 -1.9938
0 3.45336 0
0 6.53839 0
ITEM: ATOMS element x y z 
  Ar X—Õ]ÿ     2.7735790553     1.7114251405 
  Ar X—Õ]ÿ     0.6797444111     4.8269688595 
ITEM: TIMESTEP
110
ITEM: NUMBER OF ATOMS
2
ITEM: BOX BOUNDS xy xz yz pp pp pp
-1.9938 3.98759 -1.9938
0 3.45336 0
0 6.53839 0
ITEM: ATOMS element x y z 
  Ar X—Õ]ÿ     2.7971472258     1.7152664725 
  Ar X—Õ]ÿ     0.6561762406     4.8231275275 
ITEM: TIMESTEP
120
ITEM: NUMBER OF ATOMS
2
ITEM: BOX BOUNDS xy xz yz pp pp pp
-1.9938 3.98759 -1.9938
0 3.45336 0
0 6.53839 0
ITEM: ATOMS element x y z 
  Ar X—Õ]ÿ     2.8207153964     1.7191078046 
  Ar X—Õ]ÿ     0.6326080700     4.8192861954 
ITEM: TIMESTEP
130
ITEM: NUMBER OF ATOMS
2
ITEM: BOX BOUNDS xy xz yz pp pp pp
-1.9938 3.98759 -1.9938
0 3.45336 0
0 6.53839 0
ITEM: ATOMS element x y z 
  Ar X—Õ]ÿ     2.8442835669     1.7229491366 
  Ar X—Õ]ÿ     0.6090398995     4.8154448634 
ITEM: TIMESTEP
140
ITEM: NUMBER OF ATOMS
2
ITEM: BOX BOUNDS xy xz yz pp pp pp
-1.9938 3.98759 -1.9938
0 3.45336 0
0 6.53839 0
ITEM: ATOMS element x y z 
  Ar X—Õ]ÿ     2.8678517375     1.7267904686 
  Ar X—Õ]ÿ     0.5854717289     4.8116035314 
ITEM: TIMESTEP
150
ITEM: NUMBER OF ATOMS
2
ITEM: BOX BOUNDS xy xz yz pp pp pp
-1.9938 3.98759 -1.9938
0 3.45336 0
0 6.53839 0
ITEM: ATOMS element x y z 
  Ar X—Õ]ÿ     2.8914199080     1.7306318006 
  Ar X—Õ]ÿ     0.5619035584     4.8077621994 
ITEM: TIMESTEP
160
ITEM: NUMBER OF ATOMS
2
ITEM: BOX BOUNDS xy xz yz pp pp pp
-1.9938 3.98759 -1.9938
0 3.45336 0
0 6.53839 0
ITEM: ATOMS element x y z 
  Ar X—Õ]ÿ     2.9149880786     1.7344731327 
  Ar X—Õ]ÿ     0.5383353878     4.8039208673 
ITEM: TIMESTEP
170
ITEM: NUMBER OF ATOMS
2
ITEM: BOX BOUNDS xy xz yz pp pp pp
-1.9938 3.98759 -1.9938
0 3.45336 0
0 6.53839 0
ITEM: ATOMS element x y z 
  Ar X—Õ]ÿ     2.9385562491     1.7383144647 
  Ar X—Õ]ÿ     0.5147672173     4.8000795353 
ITEM: TIMESTEP
180
ITEM: NUMBER OF ATOMS
2
ITEM: BOX BOUNDS xy xz yz pp pp pp
-1.9938 3.98759 -1.9938
0 3.45336 0
0 6.53839 0
ITEM: ATOMS element x y z 
  Ar X—Õ]ÿ     2.9621244197     1.7421557967 
  Ar X—Õ]ÿ     0.4911990467     4.7962382033 
ITEM: TIMESTEP
190
ITEM: NUMBER OF ATOMS
2
ITEM: BOX BOUNDS xy xz yz pp pp pp
-1.9938 3.98759 -1.9938
0 3.45336 0
0 6.53839 0
ITEM: ATOMS element x y z 
  Ar X—Õ]ÿ     2.9856925902     1.7459971287 
  Ar X—Õ]ÿ     0.4676308762     4.7923968713 
ITEM: TIMESTEP
200
ITEM: NUMBER OF ATOMS
2
ITEM: BOX BOUNDS xy xz yz pp pp pp
-1.9938 3.98759 -1.9938
0 3.45336 0
0 6.53839 0
ITEM: ATOMS element x y z 
  Ar X—Õ]ÿ     3.0092607608     1.7498384608 
  Ar X—Õ]ÿ     0.4440627056     4.7885555392 
ITEM: TIMESTEP
210
ITEM: NUMBER OF ATOMS
2
ITEM: BOX BOUNDS xy xz yz pp pp pp
-1.9938 3.98759 -1.9938
0 3.45336 0
0 6.53839 0
ITEM: ATOMS element x y z 
  Ar X—Õ]ÿ     3.0328289313     1.7536797928 
  Ar X—Õ]ÿ     0.4204945351     4.7847142072 
ITEM: TIMESTEP
220
ITEM: NUMBER OF ATOMS
2
ITEM: BOX BOUNDS xy xz yz pp pp pp
-1.9938 3.98759 -1.9938
0 3.45336 0
0 6.53839 0
ITEM: ATOMS element x y z 
  Ar X—Õ]ÿ     3.0563971019     1.7575211248 
  Ar X—Õ]ÿ     0.3969263645     4.7808728752 
ITEM: TIMESTEP
230
ITEM: NUMBER OF ATOMS
2
ITEM: BOX BOUNDS xy xz yz pp pp pp
-1.9938 3.98759 -1.9938
0 3.45336 0
0 6.53839 0
ITEM: ATOMS element x y z 
  Ar X—Õ]ÿ     3.0799652724     1.7613624568 
  Ar X—Õ]ÿ     0.3733581940     4.7770315432 
ITEM: TIMESTEP
240
ITEM: NUMBER OF ATOMS
2
ITEM: BOX BOUNDS xy xz yz pp pp pp
-1.9938 3.98759 -1.9938
0 3.45336 0
0 6.53839 0
ITEM: ATOMS element x y z 
  Ar X—Õ]ÿ     3.1035334430     1.7652037889 
  Ar X—Õ]ÿ     0.3497900234     4.7731902111 
ITEM: TIMESTEP
250
ITEM: NUMBER OF ATOMS
2
ITEM: BOX BOUNDS xy xz yz pp pp pp
-1.9938 3.98759 -1.9938
0 3.45336 0
0 6.53839 0
ITEM: ATOMS element x y z 
  Ar X—Õ]ÿ     3.1271016135     1.7690451209 
  Ar X—Õ]ÿ     0.3262218529     4.7693488791 
ITEM: TIMESTEP
260
ITEM: NUMBER OF ATOMS
2
ITEM: BOX BOUNDS xy xz yz pp pp pp
-1.9938 3.98759 -1.9938
0 3.45336 0
0 6.53839 0
ITEM: ATOMS element x y z 
  Ar X—Õ]ÿ     3.1506697841     1.7728864529 
  Ar X—Õ]ÿ     0.3026536823     4.7655075471 
ITEM: TIMESTEP
270
ITEM: NUMBER OF ATOMS
2
ITEM: BOX BOUNDS xy xz yz pp pp pp
-1.9938 3.98759 -1.9938
0 3.45336 0
0 6.53839 0
ITEM: ATOMS element x y z 
  Ar X—Õ]ÿ     3.1742379546     1.7767277849 
  Ar X—Õ]ÿ     0.2790855118     4.7616662151 
ITEM: TIMESTEP
280
ITEM: NUMBER OF ATOMS
2
ITEM: BOX BOUNDS xy xz yz pp pp pp
-1.9938 3.98759 -1.9938
0 3.45336 0
0 6.53839 0
ITEM: ATOMS element x y z 
  Ar X—Õ]ÿ     3.1978061252     1.7805691170 
  Ar X—Õ]ÿ     0.2555173412     4.7578248830 
ITEM: TIMESTEP
290
ITEM: NUMBER OF ATOMS
2
ITEM: BOX BOUNDS xy xz yz pp pp pp
-1.9938 3.98759 -1.9938
0 3.45336 0
0 6.53839 0
ITEM: ATOMS element x y z 
  Ar X—Õ]ÿ     3.2213742957     1.7844104490 
  Ar X—Õ]ÿ     0.2319491707     4.7539835510 
ITEM: TIMESTEP
300
ITEM: NUMBER OF ATOMS
2
ITEM: BOX BOUNDS xy xz yz pp pp pp
-1.9938 3.98759 -1.9938
0 3.45336 0
0 6.53839 0
ITEM: ATOMS element x y z 
  Ar X—Õ]ÿ     3.2449424663     1.7882517810 
  Ar X—Õ]ÿ     0.2083810001     4.7501422190 
ITEM: TIMESTEP
310
ITEM: NUMBER OF ATOMS
2
ITEM: BOX BOUNDS xy xz yz pp pp pp
-1.9938 3.98759 -1.9938
0 3.45336 0
0 6.53839 0
ITEM: ATOMS element x y z 
  Ar X—Õ]ÿ     3.2685106368     1.7920931131 
  Ar X—Õ]ÿ     0.1848128296     4.7463008869 
ITEM: TIMESTEP
320
ITEM: NUMBER OF ATOMS
2
ITEM: BOX BOUNDS xy xz yz pp pp pp
-1.9938 3.98759 -1.9938
0 3.45336 0
0 6.53839 0
ITEM: ATOMS element x y z 
  Ar X—Õ]ÿ     3.2920788074     1.7959344451 
  Ar X—Õ]ÿ     0.1612446590     4.7424595549 
ITEM: TIMESTEP
330
ITEM: NUMBER OF ATOMS
2
ITEM: BOX BOUNDS xy xz yz pp pp pp
-1.9938 3.98759 -1.9938
0 3.45336 0
0 6.53839 0
ITEM: ATOMS element x y z 
  Ar X—Õ]ÿ     3.3156469779     1.7997757771 
  Ar X—Õ]ÿ     0.1376764885     4.7386182229 
ITEM: TIMESTEP
340
ITEM: NUMBER OF ATOMS
2
ITEM: BOX BOUNDS xy xz yz pp pp pp
-1.9938 3.98759 -1.9938
0 3.45336 0
0 6.53839 0
ITEM: ATOMS element x y z 
  Ar X—Õ]ÿ     3.3392151485     1.8036171091 
  Ar X—Õ]ÿ     0.1141083179     4.7347768909 
ITEM: TIMESTEP
350
ITEM: NUMBER OF ATOMS
2
ITEM: BOX BOUNDS xy xz yz pp pp pp
-1.9938 3.98759 -1.9938
0 3.45336 0
0 6.53839 0
ITEM: ATOMS element x y z 
  Ar X—Õ]ÿ     3.3627833190     1.8074584412 
  Ar X—Õ]ÿ     0.0905401474     4.7309355588 
ITEM: TIMESTEP
360
ITEM: NUMBER OF ATOMS
2
ITEM: BOX BOUNDS xy xz yz pp pp pp
-1.9938 3.98759 -1.9938
0 3.45336 0
0 6.53839 0
ITEM: ATOMS element x y z 
  Ar X—Õ]ÿ     3.3863514896     1.8112997732 
  Ar X—Õ]ÿ     0.0669719768     4.7270942268 
ITEM: TIMESTEP
370
ITEM: NUMBER OF ATOMS
2
ITEM: BOX BOUNDS xy xz yz pp pp pp
-1.9938 3.98759 -1.9938
0 3.45336 0
0 6.53839 0
ITEM: ATOMS element x y z 
  Ar X—Õ]ÿ     3.4099196601     1.8151411052 
  Ar X—Õ]ÿ     0.0434038063     4.7232528948 
ITEM: TIMESTEP
380
ITEM: NUMBER OF ATOMS
2
ITEM: BOX BOUNDS xy xz yz pp pp pp
-1.9938 3.98759 -1.9938
0 3.45336 0
0 6.53839 0
ITEM: ATOMS element x y z 
  Ar X—Õ]ÿ     3.4334878307     1.8189824372 
  Ar X—Õ]ÿ     0.0198356357     4.7194115628 
ITEM: TIMESTEP
390
ITEM: NUMBER OF ATOMS
2
ITEM: BOX BOUNDS xy xz yz pp pp pp
-1.9938 3.98759 -1.9938
0 3.45336 0
0 6.53839 0
ITEM: ATOMS element x y z 
  Ar X—Õ]ÿ     0.0036980012     1.8228237693 
  Ar X—Õ]ÿ     3.4496254652     4.7155702307 
ITEM: TIMESTEP
400
ITEM: NUMBER OF ATOMS
2
ITEM: BOX BOUNDS xy xz yz pp pp pp
-1.9938 3.98759 -1.9938
0 3.45336 0
0 6.53839 0
ITEM: ATOMS element x y z 
  Ar X—Õ]ÿ     0.0272661718     1.8266651013 
  Ar X—Õ]ÿ     3.4260572946     4.7117288987 
ITEM: TIMESTEP
410
ITEM: NUMBER OF ATOMS
2
ITEM: BOX BOUNDS xy xz yz pp pp pp
-1.9938 3.98759 -1.9938
0 3.45336 0
0 6.53839 0
ITEM: ATOMS element x y z 
  Ar X—Õ]ÿ     0.0508343423     1.8305064333 
  Ar X—Õ]ÿ     3.4024891241     4.7078875667 
ITEM: TIMESTEP
420
ITEM: NUMBER OF ATOMS
2
ITEM: BOX BOUNDS xy xz yz pp pp pp
-1.9938 3.98759 -1.9938
0 3.45336 0
0 6.53839 0
ITEM: ATOMS element x y z 
  Ar X—Õ]ÿ     0.0744025129     1.8343477653 
  Ar X—Õ]ÿ     3.3789209535     4.7040462347 
ITEM: TIMESTEP
430
ITEM: NUMBER OF ATOMS
2
ITEM: BOX BOUNDS xy xz yz pp pp pp
-1.9938 3.98759 -1.9938
0 3.45336 0
0 6.53839 0
ITEM: ATOMS element x y z 
  Ar X—Õ]ÿ     0.0979706834     1.8381890974 
  Ar X—Õ]ÿ     3.3553527830     4.7002049026 
ITEM: TIMESTEP
440
ITEM: NUMBER OF ATOMS
2
ITEM: BOX BOUNDS xy xz yz pp pp pp
-1.9938 3.98759 -1.9938
0 3.45336 0
0 6.53839 0
ITEM: ATOMS element x y z 
  Ar X—Õ]ÿ     0.1215388540     1.8420304294 
  Ar X—Õ]ÿ     3.3317846124     4.6963635706 
ITEM: TIMESTEP
450
ITEM: NUMBER OF ATOMS
2
ITEM: BOX BOUNDS xy xz yz pp pp pp
-1.9938 3.98759 -1.9938
0 3.45336 0
0 6.53839 0
ITEM: ATOMS element x y z 
  Ar X—Õ]ÿ     0.1451070245     1.8458717614 
  Ar X—Õ]ÿ     3.3082164419     4.6925222386 
ITEM: TIMESTEP
460
ITEM: NUMBER OF ATOMS
2
ITEM: BOX BOUNDS xy xz yz pp pp pp
-1.9938 3.98759 -1.9938
0 3.45336 0
0 6.53839 0
ITEM: ATOMS element x y z 
  Ar X—Õ]ÿ     0.1686751951     1.8497130934 
  Ar X—Õ]ÿ     3.2846482713     4.6886809066 
ITEM: TIMESTEP
470
ITEM: NUMBER OF ATOMS
2
ITEM: BOX BOUNDS xy xz yz pp pp pp
-1.9938 3.98759 -1.9938
0 3.45336 0
0 6.53839 0
ITEM: ATOMS element x y z 
  Ar X—Õ]ÿ     0.1922433656     1.8535544255 
  Ar X—Õ]ÿ     3.2610801008     4.6848395745 
ITEM: TIMESTEP
480
ITEM: NUMBER OF ATOMS
2
ITEM: BOX BOUNDS xy xz yz pp pp pp
-1.9938 3.98759 -1.9938
0 3.45336 0
0 6.53839 0
ITEM: ATOMS element x y z 
  Ar X—Õ]ÿ     0.2158115362     1.8573957575 
  Ar X—Õ]ÿ     3.2375119302     4.6809982425 
ITEM: TIMESTEP
490
ITEM: NUMBER OF ATOMS
2
ITEM: BOX BOUNDS xy xz yz pp pp pp
-1.9938 3.98759 -1.9938
0 3.45336 0
0 6.53839 0
ITEM: ATOMS element x y z 
  Ar X—Õ]ÿ     0.2393797067     1.8612370895 
  Ar X—Õ]ÿ     3.2139437597     4.6771569105 
ITEM: TIMESTEP
500
ITEM: NUMBER OF ATOMS
2
ITEM: BOX BOUNDS xy xz yz pp pp pp
-1.9938 3.98759 -1.9938
0 3.45336 0
0 6.53839 0
ITEM: ATOMS element x y z 
  Ar X—Õ]ÿ     0.2629478773     1.8650784215 
  Ar X—Õ]ÿ     3.1903755891     4.6733155785 
ITEM: TIMESTEP
510
ITEM: NUMBER OF ATOMS
2
ITEM: BOX BOUNDS xy xz yz pp pp pp
-1.9938 3.98759 -1.9938
0 3.45336 0
0 6.53839 0
ITEM: ATOMS element x y z 
  Ar X—Õ]ÿ     0.2865160478     1.8689197536 
  Ar X—Õ]ÿ     3.1668074186     4.6694742464 
ITEM: TIMESTEP
520
ITEM: NUMBER OF ATOMS
2
ITEM: BOX BOUNDS xy xz yz pp pp pp
-1.9938 3.98759 -1.9938
0 3.45336 0
0 6.53839 0
ITEM: ATOMS element x y z 
  Ar X—Õ]ÿ     0.3100842183     1.8727610856 
  Ar X—Õ]ÿ     3.1432392481     4.6656329144 
ITEM: TIMESTEP
530
ITEM: NUMBER OF ATOMS
2
ITEM: BOX BOUNDS xy xz yz pp pp pp
-1.9938 3.98759 -1.9938
0 3.45336 0
0 6.53839 0
ITEM: ATOMS element x y z 
  Ar X—Õ]ÿ     0.3336523889     1.8766024176 
  Ar X—Õ]ÿ     3.1196710775     4.6617915824 
ITEM: TIMESTEP
540
ITEM: NUMBER OF ATOMS
2
ITEM: BOX BOUNDS xy xz yz pp pp pp
-1.9938 3.98759 -1.9938
0 3.45336 0
0 6.53839 0
ITEM: ATOMS element x y z 
  Ar X—Õ]ÿ     0.3572205594     1.8804437496 
  Ar X—Õ]ÿ     3.0961029070     4.6579502504 
ITEM: TIMESTEP
550
ITEM: NUMBER OF ATOMS
2
ITEM: BOX BOUNDS xy xz yz pp pp pp
-1.9938 3.98759 -1.9938
0 3.45336 0
0 6.53839 0
ITEM: ATOMS element x y z 
  Ar X—Õ]ÿ     0.3807887300     1.8842850817 
  Ar X—Õ]ÿ     3.0725347364     4.6541089183 
ITEM: TIMESTEP
560
ITEM: NUMBER OF ATOMS
2
ITEM: BOX BOUNDS xy xz yz pp pp pp
-1.9938 3.98759 -1.9938
0 3.45336 0
0 6.53839 0
ITEM: ATOMS element x y z 
  Ar X—Õ]ÿ     0.4043569005     1.8881264137 
  Ar X—Õ]ÿ     3.0489665659     4.6502675863 
ITEM: TIMESTEP
570
ITEM: NUMBER OF ATOMS
2
ITEM: BOX BOUNDS xy xz yz pp pp pp
-1.9938 3.98759 -1.9938
0 3.45336 0
0 6.53839 0
ITEM: ATOMS element x y z 
  Ar X—Õ]ÿ     0.4279250711     1.8919677457 
  Ar X—Õ]ÿ     3.0253983953     4.6464262543 
ITEM: TIMESTEP
580
ITEM: NUMBER OF ATOMS
2
ITEM: BOX BOUNDS xy xz yz pp pp pp
-1.9938 3.98759 -1.9938
0 3.45336 0
0 6.53839 0
ITEM: ATOMS element x y z 
  Ar X—Õ]ÿ     0.4514932416     1.8958090777 
  Ar X—Õ]ÿ     3.0018302248     4.6425849223 
ITEM: TIMESTEP
590
ITEM: NUMBER OF ATOMS
2
ITEM: BOX BOUNDS xy xz yz pp pp pp
-1.9938 3.98759 -1.9938
0 3.45336 0
0 6.53839 0
ITEM: ATOMS element x y z 
  Ar X—Õ]ÿ     0.4750614122     1.8996504098 
  Ar X—Õ]ÿ     2.9782620542     4.6387435902 
ITEM: TIMESTEP
600
ITEM: NUMBER OF ATOMS
2
ITEM: BOX BOUNDS xy xz yz pp pp pp
-1.9938 3.98759 -1.9938
0 3.45336 0
0 6.53839 0
ITEM: ATOMS element x y z 
  Ar X—Õ]ÿ     0.4986295827     1.9034917418 
  Ar X—Õ]ÿ     2.9546938837     4.6349022582 
ITEM: TIMESTEP
610
ITEM: NUMBER OF ATOMS
2
ITEM: BOX BOUNDS xy xz yz pp pp pp
-1.9938 3.98759 -1.9938
0 3.45336 0
0 6.53839 0
ITEM: ATOMS element x y z 
  Ar X—Õ]ÿ     0.5221977533     1.9073330738 
  Ar X—Õ]ÿ     2.9311257131     4.6310609262 
ITEM: TIMESTEP
620
ITEM: NUMBER OF ATOMS
2
ITEM: BOX BOUNDS xy xz yz pp pp pp
-1.9938 3.98759 -1.9938
0 3.45336 0
0 6.53839 0
ITEM: ATOMS element x y z 
  Ar X—Õ]ÿ     0.5457659238     1.9111744058 
  Ar X—Õ]ÿ     2.9075575426     4.6272195942 
ITEM: TIMESTEP
630
ITEM: NUMBER OF ATOMS
2
ITEM: BOX BOUNDS xy xz yz pp pp pp
-1.9938 3.98759 -1.9938
0 3.45336 0
0 6.53839 0
ITEM: ATOMS element x y z 
  Ar X—Õ]ÿ     0.5693340944     1.9150157379 
  Ar X—Õ]ÿ     2.8839893720     4.6233782621 
ITEM: TIMESTEP
640
ITEM: NUMBER OF ATOMS
2
ITEM: BOX BOUNDS xy xz yz pp pp pp
-1.9938 3.98759 -1.9938
0 3.45336 0
0 6.53839 0
ITEM: ATOMS element x y z 
  Ar X—Õ]ÿ     0.5929022649     1.9188570699 
  Ar X—Õ]ÿ     2.8604212015     4.6195369301 
ITEM: TIMESTEP
650
ITEM: NUMBER OF ATOMS
2
ITEM: BOX BOUNDS xy xz yz pp pp pp
-1.9938 3.98759 -1.9938
0 3.45336 0
0 6.53839 0
ITEM: ATOMS element x y z 
  Ar X—Õ]ÿ     0.6164704355     1.9226984019 
  Ar X—Õ]ÿ     2.8368530309     4.6156955981 
ITEM: TIMESTEP
660
ITEM: NUMBER OF ATOMS
2
ITEM: BOX BOUNDS xy xz yz pp pp pp
-1.9938 3.98759 -1.9938
0 3.45336 0
0 6.53839 0
ITEM: ATOMS element x y z 
  Ar X—Õ]ÿ     0.6400386060     1.9265397339 
  Ar X—Õ]ÿ     2.8132848604     4.6118542661 
ITEM: TIMESTEP
670
ITEM: NUMBER OF ATOMS
2
ITEM: BOX BOUNDS xy xz yz pp pp pp
-1.9938 3.98759 -1.9938
0 3.45336 0
0 6.53839 0
ITEM: ATOMS element x y z 
  Ar X—Õ]ÿ     0.6636067766     1.9303810660 
  Ar X—Õ]ÿ     2.7897166898     4.6080129340 
ITEM: TIMESTEP
680
ITEM: NUMBER OF ATOMS
2
ITEM: BOX BOUNDS xy xz yz pp pp pp
-1.9938 3.98759 -1.9938
0 3.45336 0
0 6.53839 0
ITEM: ATOMS element x y z 
  Ar X—Õ]ÿ     0.6871749471     1.9342223980 
  Ar X—Õ]ÿ     2.7661485193     4.6041716020 
ITEM: TIMESTEP
690
ITEM: NUMBER OF ATOMS
2
ITEM: BOX BOUNDS xy xz yz pp pp pp
-1.9938 3.98759 -1.9938
0 3.45336 0
0 6.53839 0
ITEM: ATOMS element x y z 
  Ar X—Õ]ÿ     0.7107431177     1.9380637300 
  Ar X—Õ]ÿ     2.7425803487     4.6003302700 
ITEM: TIMESTEP
700
ITEM: NUMBER OF ATOMS
2
ITEM: BOX BOUNDS xy xz yz pp pp pp
-1.9938 3.98759 -1.9938
0 3.45336 0
0 6.53839 0
ITEM: ATOMS element x y z 
  Ar X—Õ]ÿ     0.7343112882     1.9419050621 
  Ar X—Õ]ÿ     2.7190121782     4.5964889379 
ITEM: TIMESTEP
710
ITEM: NUMBER OF ATOMS
2
ITEM: BOX BOUNDS xy xz yz pp pp pp
-1.9938 3.98759 -1.9938
0 3.45336 0
0 6.53839 0
ITEM: ATOMS element x y z 
  Ar X—Õ]ÿ     0.7578794588     1.9457463941 
  Ar X—Õ]ÿ     2.6954440076     4.5926476059 
ITEM: TIMESTEP
720
ITEM: NUMBER OF ATOMS
2
ITEM: BOX BOUNDS xy xz yz pp pp pp
-1.9938 3.98759 -1.9938
0 3.45336 0
0 6.53839 0
ITEM: ATOMS element x y z 
  Ar X—Õ]ÿ     0.7814476293     1.9495877261 
  Ar X—Õ]ÿ     2.6718758371     4.5888062739 
ITEM: TIMESTEP
730
ITEM: NUMBER OF ATOMS
2
ITEM: BOX BOUNDS xy xz yz pp pp pp
-1.9938 3.98759 -1.9938
0 3.45336 0
0 6.53839 0
ITEM: ATOMS element x y z 
  Ar X—Õ]ÿ     0.8050157999     1.9534290581 
  Ar X—Õ]ÿ     2.6483076665     4.5849649419 
ITEM: TIMESTEP
740
ITEM: NUMBER OF ATOMS
2
ITEM: BOX BOUNDS xy xz yz pp pp pp
-1.9938 3.98759 -1.9938
0 3.45336 0
0 6.53839 0
ITEM: ATOMS element x y z 
  Ar X—Õ]ÿ     0.8285839704     1.9572703902 
  Ar X—Õ]ÿ     2.6247394960     4.5811236098 
ITEM: TIMESTEP
750
ITEM: NUMBER OF ATOMS
2
ITEM: BOX BOUNDS xy xz yz pp pp pp
-1.9938 3.98759 -1.9938
0 3.45336 0
0 6.53839 0
ITEM: ATOMS element x y z 
  Ar X—Õ]ÿ     0.8521521410     1.9611117222 
  Ar X—Õ]ÿ     2.6011713254     4.5772822778 
ITEM: TIMESTEP
760
ITEM: NUMBER OF ATOMS
2
ITEM: BOX BOUNDS xy xz yz pp pp pp
-1.9938 3.98759 -1.9938
0 3.45336 0
0 6.53839 0
ITEM: ATOMS element x y z 
  Ar X—Õ]ÿ     0.8757203115     1.9649530542 
  Ar X—Õ]ÿ     2.5776031549     4.5734409458 
ITEM: TIMESTEP
770
ITEM: NUMBER OF ATOMS
2
ITEM: BOX BOUNDS xy xz yz pp pp pp
-1.9938 3.98759 -1.9938
0 3.45336 0
0 6.53839 0
ITEM: ATOMS element x y z 
  Ar X—Õ]ÿ     0.8992884821     1.9687943862 
  Ar X—Õ]ÿ     2.5540349843     4.5695996138 
ITEM: TIMESTEP
780
ITEM: NUMBER OF ATOMS
2
ITEM: BOX BOUNDS xy xz yz pp pp pp
-1.9938 3.98759 -1.9938
0 3.45336 0
0 6.53839 0
ITEM: ATOMS element x y z 
  Ar X—Õ]ÿ     0.9228566526     1.9726357183 
  Ar X—Õ]ÿ     2.5304668138     4.5657582817 
ITEM: TIMESTEP
790
ITEM: NUMBER OF ATOMS
2
ITEM: BOX BOUNDS xy xz yz pp pp pp
-1.9938 3.98759 -1.9938
0 3.45336 0
0 6.53839 0
ITEM: ATOMS element x y z 
  Ar X—Õ]ÿ     0.9464248232     1.9764770503 
  Ar X—Õ]ÿ     2.5068986432     4.5619169497 
ITEM: TIMESTEP
800
ITEM: NUMBER OF ATOMS
2
ITEM: BOX BOUNDS xy xz yz pp pp pp
-1.9938 3.98759 -1.9938
0 3.45336 0
0 6.53839 0
ITEM: ATOMS element x y z 
  Ar X—Õ]ÿ     0.9699929937     1.9803183823 
  Ar X—Õ]ÿ     2.4833304727     4.5580756177 
ITEM: TIMESTEP
810
ITEM: NUMBER OF ATOMS
2
ITEM: BOX BOUNDS xy xz yz pp pp pp
-1.9938 3.98759 -1.9938
0 3.45336 0
0 6.53839 0
ITEM: ATOMS element x y z 
  Ar X—Õ]ÿ     0.9935611643     1.9841597143 
  Ar X—Õ]ÿ     2.4597623021     4.5542342857 
ITEM: TIMESTEP
820
ITEM: NUMBER OF ATOMS
2
ITEM: BOX BOUNDS xy xz yz pp pp pp
-1.9938 3.98759 -1.9938
0 3.45336 0
0 6.53839 0
ITEM: ATOMS element x y z 
  Ar X—Õ]ÿ     1.0171293348     1.9880010464 
  Ar X—Õ]ÿ     2.4361941316     4.5503929536 
ITEM: TIMESTEP
830
ITEM: NUMBER OF ATOMS
2
ITEM: BOX BOUNDS xy xz yz pp pp pp
-1.9938 3.98759 -1.9938
0 3.45336 0
0 6.53839 0
ITEM: ATOMS element x y z 
  Ar X—Õ]ÿ     1.0406975054     1.9918423784 
  Ar X—Õ]ÿ     2.4126259610     4.5465516216 
ITEM: TIMESTEP
840
ITEM: NUMBER OF ATOMS
2
ITEM: BOX BOUNDS xy xz yz pp pp pp
-1.9938 3.98759 -1.9938
0 3.45336 0
0 6.53839 0
ITEM: ATOMS element x y z 
  Ar X—Õ]ÿ     1.0642656759     1.9956837104 
  Ar X—Õ]ÿ     2.3890577905     4.5427102896 
ITEM: TIMESTEP
850
ITEM: NUMBER OF ATOMS
2
ITEM: BOX BOUNDS xy xz yz pp pp pp
-1.9938 3.98759 -1.9938
0 3.45336 0
0 6.53839 0
ITEM: ATOMS element x y z 
  Ar X—Õ]ÿ     1.0878338465     1.9995250424 
  Ar X—Õ]ÿ     2.3654896199     4.5388689576 
ITEM: TIMESTEP
860
ITEM: NUMBER OF ATOMS
2
ITEM: BOX BOUNDS xy xz yz pp pp pp
-1.9938 3.98759 -1.9938
0 3.45336 0
0 6.53839 0
ITEM: ATOMS element x y z 
  Ar X—Õ]ÿ     1.1114020170     2.0033663745 
  Ar X—Õ]ÿ     2.3419214494     4.5350276255 
ITEM: TIMESTEP
870
ITEM: NUMBER OF ATOMS
2
ITEM: BOX BOUNDS xy xz yz pp pp pp
-1.9938 3.98759 -1.9938
0 3.45336 0
0 6.53839 0
ITEM: ATOMS element x y z 
  Ar X—Õ]ÿ     1.1349701876     2.0072077065 
  Ar X—Õ]ÿ     2.3183532788     4.5311862935 
ITEM: TIMESTEP
880
ITEM: NUMBER OF ATOMS
2
ITEM: BOX BOUNDS xy xz yz pp pp pp
-1.9938 3.98759 -1.9938
0 3.45336 0
0 6.53839 0
ITEM: ATOMS element x y z 
  Ar X—Õ]ÿ     1.1585383581     2.0110490385 
  Ar X—Õ]ÿ     2.2947851083     4.5273449615 
ITEM: TIMESTEP
890
ITEM: NUMBER OF ATOMS
2
ITEM: BOX BOUNDS xy xz yz pp pp pp
-1.9938 3.98759 -1.9938
0 3.45336 0
0 6.53839 0
ITEM: ATOMS element x y z 
  Ar X—Õ]ÿ     1.1821065287     2.0148903705 
  Ar X—Õ]ÿ     2.2712169377     4.5235036295 
ITEM: TIMESTEP
900
ITEM: NUMBER OF ATOMS
2
ITEM: BOX BOUNDS xy xz yz pp pp pp
-1.9938 3.98759 -1.9938
0 3.45336 0
0 6.53839 0
ITEM: ATOMS element x y z 
  Ar X—Õ]ÿ     1.2056746992     2.0187317026 
  Ar X—Õ]ÿ     2.2476487672     4.5196622974 
ITEM: TIMESTEP
910
ITEM: NUMBER OF ATOMS
2
ITEM: BOX BOUNDS xy xz yz pp pp pp
-1.9938 3.98759 -1.9938
0 3.45336 0
0 6.53839 0
ITEM: ATOMS element x y z 
  Ar X—Õ]ÿ     1.2292428698     2.0225730346 
  Ar X—Õ]ÿ     2.2240805966     4.5158209654 
ITEM: TIMESTEP
920
ITEM: NUMBER OF ATOMS
2
ITEM: BOX BOUNDS xy xz yz pp pp pp
-1.9938 3.98759 -1.9938
0 3.45336 0
0 6.53839 0
ITEM: ATOMS element x y z 
  Ar X—Õ]ÿ     1.2528110403     2.0264143666 
  Ar X—Õ]ÿ     2.2005124261     4.5119796334 
ITEM: TIMESTEP
930
ITEM: NUMBER OF ATOMS
2
ITEM: BOX BOUNDS xy xz yz pp pp pp
-1.9938 3.98759 -1.9938
0 3.45336 0
0 6.53839 0
ITEM: ATOMS element x y z 
  Ar X—Õ]ÿ     1.2763792109     2.0302556986 
  Ar X—Õ]ÿ     2.1769442555     4.5081383014 
ITEM: TIMESTEP
940
ITEM: NUMBER OF ATOMS
2
ITEM: BOX BOUNDS xy xz yz pp pp pp
-1.9938 3.98759 -1.9938
0 3.45336 0
0 6.53839 0
ITEM: ATOMS element x y z 
  Ar X—Õ]ÿ     1.2999473814     2.0340970307 
  Ar X—Õ]ÿ     2.1533760850     4.5042969693 
ITEM: TIMESTEP
950
ITEM: NUMBER OF ATOMS
2
ITEM: BOX BOUNDS xy xz yz pp pp pp
-1.9938 3.98759 -1.9938
0 3.45336 0
0 6.53839 0
ITEM: ATOMS element x y z 
  Ar X—Õ]ÿ     1.3235155520     2.0379383627 
  Ar X—Õ]ÿ     2.1298079144     4.5004556373 
ITEM: TIMESTEP
960
ITEM: NUMBER OF ATOMS
2
ITEM: BOX BOUNDS xy xz yz pp pp pp
-1.9938 3.98759 -1.9938
0 3.45336 0
0 6.53839 0
ITEM: ATOMS element x y z 
  Ar X—Õ]ÿ     1.3470837225     2.0417796947 
  Ar X—Õ]ÿ     2.1062397439     4.4966143053 
ITEM: TIMESTEP
970
ITEM: NUMBER OF ATOMS
2
ITEM: BOX BOUNDS xy xz yz pp pp pp
-1.9938 3.98759 -1.9938
0 3.45336 0
0 6.53839 0
ITEM: ATOMS element x y z 
  Ar X—Õ]ÿ     1.3706518931     2.0456210267 
  Ar X—Õ]ÿ     2.0826715733     4.4927729733 
ITEM: TIMESTEP
980
ITEM: NUMBER OF ATOMS
2
ITEM: BOX BOUNDS xy xz yz pp pp pp
-1.9938 3.98759 -1.9938
0 3.45336 0
0 6.53839 0
ITEM: ATOMS element x y z 
  Ar X—Õ]ÿ     1.3942200636     2.0494623588 
  Ar X—Õ]ÿ     2.0591034028     4.4889316412 
ITEM: TIMESTEP
990
ITEM: NUMBER OF ATOMS
2
ITEM: BOX BOUNDS xy xz yz pp pp pp
-1.9938 3.98759 -1.9938
0 3.45336 0
0 6.53839 0
ITEM: ATOMS element x y z 
  Ar X—Õ]ÿ     1.4177882342     2.0533036908 
  Ar X—Õ]ÿ     2.0355352322     4.4850903092 
ITEM: TIMESTEP
1000
ITEM: NUMBER OF ATOMS
2
ITEM: BOX BOUNDS xy xz yz pp pp pp
-1.9938 3.98759 -1.9938
0 3.45336 0
0 6.53839 0
ITEM: ATOMS element x y z 
  Ar X—Õ]ÿ     1.4413564047     2.0571450228 
  Ar X—Õ]ÿ     2.0119670617     4.4812489772 
