ITEM: TIMESTEP
0
ITEM: NUMBER OF ATOMS
12
ITEM: BOX BOUNDS xy xz yz pp pp pp
0 5.38 0
0 5.38 0
0 5.38 0
ITEM: ATOMS element x y z q 
  Fe     0.0000000000     0.0000000000     0.0000000000     0.3597127623 
  Fe     2.6900000000     0.0000000000     2.6900000000     0.3597127623 
  Fe     0.0000000000     2.6900000000     2.6900000000     0.3597127623 
  Fe     2.6900000000     2.6900000000     0.0000000000     0.3597127623 
   S     1.8184400000     1.8184400000     1.8184400000    -0.1798563811 
   S     3.5615600000     3.5615600000     3.5615600000    -0.1798563811 
   S     0.8715600000     3.5615600000     4.5084400000    -0.1798563811 
   S     4.5084400000     1.8184400000     0.8715600000    -0.1798563811 
   S     3.5615600000     4.5084400000     0.8715600000    -0.1798563811 
   S     1.8184400000     0.8715600000     4.5084400000    -0.1798563811 
   S     4.5084400000     0.8715600000     3.5615600000    -0.1798563811 
   S     0.8715600000     4.5084400000     1.8184400000    -0.1798563811 
ITEM: TIMESTEP
10
ITEM: NUMBER OF ATOMS
12
ITEM: BOX BOUNDS xy xz yz pp pp pp
0 5.38 0
0 5.38 0
0 5.38 0
ITEM: ATOMS element x y z q 
  Fe     0.0000159631     0.0000299210     5.3799706662     0.3597127454 
  Fe     2.6899938137     0.0000169459     2.6899788812     0.3597121268 
  Fe     0.0000012944     2.6899973917     2.6899773221     0.3597129992 
  Fe     2.6899949973     2.6899920481     0.0000018858     0.3597129842 
   S     1.8184422981     1.8184451130     1.8184603672    -0.1798567263 
   S     3.5615254227     3.5615193625     3.5615546962    -0.1798565989 
   S     0.8715588003     3.5615771842     4.5084110566    -0.1798552010 
   S     4.5084380701     1.8184594185     0.8716008068    -0.1798560821 
   S     3.5615468897     4.5084237126     0.8716044787    -0.1798557561 
   S     1.8184536026     0.8715582457     4.5085031674    -0.1798574345 
   S     4.5084840156     0.8715121667     3.5615863021    -0.1798574156 
   S     0.8715403319     4.5084415643     1.8184032063    -0.1798556412 
ITEM: TIMESTEP
20
ITEM: NUMBER OF ATOMS
12
ITEM: BOX BOUNDS xy xz yz pp pp pp
0 5.38 0
0 5.38 0
0 5.38 0
ITEM: ATOMS element x y z q 
  Fe     0.0000319262     0.0000598420     5.3799413323     0.3597137016 
  Fe     2.6899876273     0.0000338919     2.6899577623     0.3597109264 
  Fe     0.0000025888     2.6899947833     2.6899546441     0.3597130865 
  Fe     2.6899899946     2.6899840963     0.0000037715     0.3597129191 
   S     1.8184446010     1.8184502308     1.8184807393    -0.1798556977 
   S     3.5614908405     3.5614787202     3.5615493876    -0.1798557592 
   S     0.8715575958     3.5615943635     4.5083821181    -0.1798571733 
   S     4.5084361451     1.8184788419     0.8716416087    -0.1798570966 
   S     3.5615337746     4.5084074301     0.8716489526    -0.1798555867 
   S     1.8184672100     0.8715564865     4.5085663396    -0.1798566706 
   S     4.5085280361     0.8714643285     3.5616125993    -0.1798580816 
   S     0.8715206590     4.5084431333     1.8183664175    -0.1798545678 
ITEM: TIMESTEP
30
ITEM: NUMBER OF ATOMS
12
ITEM: BOX BOUNDS xy xz yz pp pp pp
0 5.38 0
0 5.38 0
0 5.38 0
ITEM: ATOMS element x y z q 
  Fe     0.0000478894     0.0000897631     5.3799119984     0.3597137536 
  Fe     2.6899814410     0.0000508380     2.6899366434     0.3597105209 
  Fe     0.0000038832     2.6899921750     2.6899319661     0.3597132670 
  Fe     2.6899849919     2.6899761445     0.0000056572     0.3597129428 
   S     1.8184469086     1.8184553534     1.8185011163    -0.1798586424 
   S     3.5614562534     3.5614380729     3.5615440741    -0.1798520255 
   S     0.8715563864     3.5616115381     4.5083531845    -0.1798548979 
   S     4.5084342249     1.8184982702     0.8716824058    -0.1798602249 
   S     3.5615206547     4.5083911523     0.8716934218    -0.1798520707 
   S     1.8184808224     0.8715547225     4.5086295168    -0.1798600495 
   S     4.5085720614     0.8714164855     3.5616388917    -0.1798591783 
   S     0.8715009813     4.5084447072     1.8183296336    -0.1798533952 
ITEM: TIMESTEP
40
ITEM: NUMBER OF ATOMS
12
ITEM: BOX BOUNDS xy xz yz pp pp pp
0 5.38 0
0 5.38 0
0 5.38 0
ITEM: ATOMS element x y z q 
  Fe     0.0000638525     0.0001196842     5.3798826645     0.3597129419 
  Fe     2.6899752547     0.0000677841     2.6899155245     0.3597107339 
  Fe     0.0000051776     2.6899895668     2.6899092881     0.3597136203 
  Fe     2.6899799892     2.6899681926     0.0000075429     0.3597129857 
   S     1.8184492211     1.8184604808     1.8185214981    -0.1798592369 
   S     3.5614216614     3.5613974208     3.5615387558    -0.1798506552 
   S     0.8715551722     3.5616287078     4.5083242558    -0.1798550881 
   S     4.5084323094     1.8185177033     0.8717231981    -0.1798602047 
   S     3.5615075301     4.5083748794     0.8717378861    -0.1798519957 
   S     1.8184944396     0.8715529535     4.5086926988    -0.1798604822 
   S     4.5086160916     0.8713686375     3.5616651792    -0.1798606120 
   S     0.8714812987     4.5084462858     1.8182928545    -0.1798520071 
ITEM: TIMESTEP
50
ITEM: NUMBER OF ATOMS
12
ITEM: BOX BOUNDS xy xz yz pp pp pp
0 5.38 0
0 5.38 0
0 5.38 0
ITEM: ATOMS element x y z q 
  Fe     0.0000798155     0.0001496053     5.3798533305     0.3597123487 
  Fe     2.6899690684     0.0000847302     2.6898944056     0.3597106345 
  Fe     0.0000064719     2.6899869585     2.6898866101     0.3597139957 
  Fe     2.6899749865     2.6899602408     0.0000094286     0.3597128080 
   S     1.8184515384     1.8184656130     1.8185418848    -0.1798590203 
   S     3.5613870645     3.5613567639     3.5615334326    -0.1798480844 
   S     0.8715539531     3.5616458727     4.5082953319    -0.1798552640 
   S     4.5084303988     1.8185371412     0.8717639856    -0.1798632060 
   S     3.5614944006     4.5083586112     0.8717823456    -0.1798498692 
   S     1.8185080618     0.8715511796     4.5087558858    -0.1798621611 
   S     4.5086601266     0.8713207847     3.5616914619    -0.1798611272 
   S     0.8714616114     4.5084478692     1.8182560803    -0.1798510546 
ITEM: TIMESTEP
60
ITEM: NUMBER OF ATOMS
12
ITEM: BOX BOUNDS xy xz yz pp pp pp
0 5.38 0
0 5.38 0
0 5.38 0
ITEM: ATOMS element x y z q 
  Fe     0.0000957786     0.0001795265     5.3798239966     0.3597149260 
  Fe     2.6899628820     0.0001016764     2.6898732867     0.3597076822 
  Fe     0.0000077663     2.6899843503     2.6898639321     0.3597139989 
  Fe     2.6899699839     2.6899522890     0.0000113142     0.3597133362 
   S     1.8184538605     1.8184707501     1.8185622763    -0.1798617526 
   S     3.5613524627     3.5613161020     3.5615281046    -0.1798471083 
   S     0.8715527291     3.5616630328     4.5082664130    -0.1798537104 
   S     4.5084284930     1.8185565840     0.8718047682    -0.1798630190 
   S     3.5614812664     4.5083423479     0.8718268003    -0.1798485646 
   S     1.8185216888     0.8715494008     4.5088190775    -0.1798631798 
   S     4.5087041664     0.8712729270     3.5617177396    -0.1798627766 
   S     0.8714419192     4.5084494574     1.8182193110    -0.1798498319 
ITEM: TIMESTEP
70
ITEM: NUMBER OF ATOMS
12
ITEM: BOX BOUNDS xy xz yz pp pp pp
0 5.38 0
0 5.38 0
0 5.38 0
ITEM: ATOMS element x y z q 
  Fe     0.0001117416     0.0002094476     5.3797946627     0.3597153586 
  Fe     2.6899566957     0.0001186227     2.6898521677     0.3597101667 
  Fe     0.0000090607     2.6899817421     2.6898412541     0.3597147178 
  Fe     2.6899649813     2.6899443373     0.0000131999     0.3597142573 
   S     1.8184561873     1.8184758919     1.8185826726    -0.1798638866 
   S     3.5613178561     3.5612754354     3.5615227718    -0.1798472256 
   S     0.8715515003     3.5616801880     4.5082374989    -0.1798526000 
   S     4.5084265920     1.8185760316     0.8718455459    -0.1798638995 
   S     3.5614681275     4.5083260894     0.8718712501    -0.1798478217 
   S     1.8185353208     0.8715476171     4.5088822741    -0.1798653145 
   S     4.5087482111     0.8712250645     3.5617440124    -0.1798642120 
   S     0.8714222223     4.5084510504     1.8181825466    -0.1798495405 
ITEM: TIMESTEP
80
ITEM: NUMBER OF ATOMS
12
ITEM: BOX BOUNDS xy xz yz pp pp pp
0 5.38 0
0 5.38 0
0 5.38 0
ITEM: ATOMS element x y z q 
  Fe     0.0001277045     0.0002393688     5.3797653288     0.3597120683 
  Fe     2.6899505094     0.0001355690     2.6898310489     0.3597091184 
  Fe     0.0000103550     2.6899791339     2.6898185761     0.3597133250 
  Fe     2.6899599786     2.6899363855     0.0000150855     0.3597120284 
   S     1.8184585190     1.8184810386     1.8186030738    -0.1798622487 
   S     3.5612832446     3.5612347638     3.5615174340    -0.1798428134 
   S     0.8715502666     3.5616973384     4.5082085898    -0.1798535307 
   S     4.5084246957     1.8185954840     0.8718863187    -0.1798660415 
   S     3.5614549838     4.5083098357     0.8719156951    -0.1798455527 
   S     1.8185489577     0.8715458285     4.5089454755    -0.1798651559 
   S     4.5087922605     0.8711771972     3.5617702802    -0.1798641841 
   S     0.8714025206     4.5084526481     1.8181457871    -0.1798470131 
ITEM: TIMESTEP
90
ITEM: NUMBER OF ATOMS
12
ITEM: BOX BOUNDS xy xz yz pp pp pp
0 5.38 0
0 5.38 0
0 5.38 0
ITEM: ATOMS element x y z q 
  Fe     0.0001436674     0.0002692899     5.3797359950     0.3597161375 
  Fe     2.6899443231     0.0001525154     2.6898099300     0.3597063830 
  Fe     0.0000116494     2.6899765257     2.6897958981     0.3597149601 
  Fe     2.6899549761     2.6899284339     0.0000169712     0.3597140774 
   S     1.8184608555     1.8184861901     1.8186234799    -0.1798650525 
   S     3.5612486282     3.5611940875     3.5615120914    -0.1798431327 
   S     0.8715490280     3.5617144840     4.5081796855    -0.1798521070 
   S     4.5084228043     1.8186149412     0.8719270867    -0.1798661358 
   S     3.5614418354     4.5082935868     0.8719601352    -0.1798450068 
   S     1.8185625995     0.8715440350     4.5090086817    -0.1798669962 
   S     4.5088363148     0.8711293250     3.5617965431    -0.1798662452 
   S     0.8713828141     4.5084542507     1.8181090324    -0.1798468815 
ITEM: TIMESTEP
100
ITEM: NUMBER OF ATOMS
12
ITEM: BOX BOUNDS xy xz yz pp pp pp
0 5.38 0
0 5.38 0
0 5.38 0
ITEM: ATOMS element x y z q 
  Fe     0.0001596302     0.0002992111     5.3797066612     0.3597155767 
  Fe     2.6899381368     0.0001694618     2.6897888112     0.3597046419 
  Fe     0.0000129437     2.6899739176     2.6897732202     0.3597143160 
  Fe     2.6899499735     2.6899204822     0.0000188568     0.3597133264 
   S     1.8184631969     1.8184913465     1.8186438907    -0.1798655493 
   S     3.5612140070     3.5611534063     3.5615067439    -0.1798412459 
   S     0.8715477847     3.5617316247     4.5081507862    -0.1798510497 
   S     4.5084209177     1.8186344031     0.8719678497    -0.1798666887 
   S     3.5614286823     4.5082773427     0.8720045704    -0.1798432833 
   S     1.8185762462     0.8715422365     4.5090718926    -0.1798677670 
   S     4.5088803738     0.8710814480     3.5618228010    -0.1798668707 
   S     0.8713631028     4.5084558581     1.8180722827    -0.1798454063 
ITEM: TIMESTEP
100
ITEM: NUMBER OF ATOMS
12
ITEM: BOX BOUNDS xy xz yz pp pp pp
0 5.38 0
0 5.38 0
0 5.38 0
ITEM: ATOMS element x y z q 
  Fe     0.0001596302     0.0002992111     5.3797066612     0.3597135811 
  Fe     2.6899381368     0.0001694618     2.6897888112     0.3597075563 
  Fe     0.0000129437     2.6899739176     2.6897732202     0.3597148934 
  Fe     2.6899499735     2.6899204822     0.0000188568     0.3597133031 
   S     1.8184631969     1.8184913465     1.8186438907    -0.1798645813 
   S     3.5612140070     3.5611534063     3.5615067439    -0.1798402367 
   S     0.8715477847     3.5617316247     4.5081507862    -0.1798525069 
   S     4.5084209177     1.8186344031     0.8719678497    -0.1798681293 
   S     3.5614286823     4.5082773427     0.8720045704    -0.1798435711 
   S     1.8185762462     0.8715422365     4.5090718926    -0.1798680497 
   S     4.5088803738     0.8710814480     3.5618228010    -0.1798668646 
   S     0.8713631028     4.5084558581     1.8180722827    -0.1798453944 
ITEM: TIMESTEP
200
ITEM: NUMBER OF ATOMS
12
ITEM: BOX BOUNDS xy xz yz pp pp pp
0 5.38 0
0 5.38 0
0 5.38 0
ITEM: ATOMS element x y z q 
  Fe     0.0003192520     0.0005984196     5.3794133294     0.3597181939 
  Fe     2.6898762738     0.0003389274     2.6895776277     0.3596950982 
  Fe     0.0000258863     2.6899478384     2.6895464449     0.3597160507 
  Fe     2.6898999488     2.6898409691     0.0000377130     0.3597138943 
   S     1.8184868750     1.8185431761     1.8188482644    -0.1798746151 
   S     3.5608675276     3.5607463302     3.5614529995    -0.1798259929 
   S     0.8715350843     3.5619027656     4.5078620629    -0.1798450230 
   S     4.5084023137     1.8188292848     0.8723752080    -0.1798762868 
   S     3.5612968945     4.5081151679     0.8724486507    -0.1798302870 
   S     1.8187129870     0.8715239800     4.5097042618    -0.1798792275 
   S     4.5093212254     0.8706024157     3.5620851027    -0.1798773842 
   S     0.8711657280     4.5084721956     1.8177050562    -0.1798344206 
ITEM: TIMESTEP
300
ITEM: NUMBER OF ATOMS
12
ITEM: BOX BOUNDS xy xz yz pp pp pp
0 5.38 0
0 5.38 0
0 5.38 0
ITEM: ATOMS element x y z q 
  Fe     0.0004788537     0.0008976122     5.3791200214     0.3597204692 
  Fe     2.6898144116     0.0005083915     2.6893664633     0.3596878816 
  Fe     0.0000388264     2.6899217645     2.6893196876     0.3597167655 
  Fe     2.6898499274     2.6897614665     0.0000565701     0.3597138949 
   S     1.8185110358     1.8185954914     1.8190531140    -0.1798834950 
   S     3.5605205702     3.5603387848     3.5613987616    -0.1798105753 
   S     0.8715219014     3.5620734178     4.5075738370    -0.1798401357 
   S     4.5083841851     1.8190246330     0.8727820574    -0.1798870347 
   S     3.5611646503     4.5079534802     0.8728922207    -0.1798167826 
   S     1.8188502276     0.8715052265     4.5103370819    -0.1798901970 
   S     4.5097625385     0.8701229213     3.5623468840    -0.1798876321 
   S     0.8709678834     4.5084890137     1.8173383309    -0.1798231587 
ITEM: TIMESTEP
400
ITEM: NUMBER OF ATOMS
12
ITEM: BOX BOUNDS xy xz yz pp pp pp
0 5.38 0
0 5.38 0
0 5.38 0
ITEM: ATOMS element x y z q 
  Fe     0.0006384197     0.0011967692     5.3788267607     0.3597239130 
  Fe     2.6897525523     0.0006778449     2.6891553362     0.3596837427 
  Fe     0.0000517623     2.6898956984     2.6890929662     0.3597209415 
  Fe     2.6897999114     2.6896819821     0.0000754292     0.3597175821 
   S     1.8185356800     1.8186482936     1.8192584284    -0.1798929572 
   S     3.5601731508     3.5599307921     3.5613440261    -0.1797957468 
   S     0.8715082385     3.5622435726     4.5072861214    -0.1798367887 
   S     4.5083665291     1.8192204317     0.8731883717    -0.1798993146 
   S     3.5610319664     4.5077922879     0.8733352506    -0.1798049913 
   S     1.8189879703     0.8714859725     4.5109703140    -0.1799029086 
   S     4.5102042877     0.8696429933     3.5626081184    -0.1798997456 
   S     0.8707695808     4.5085063131     1.8169721252    -0.1798137266 
ITEM: TIMESTEP
500
ITEM: NUMBER OF ATOMS
12
ITEM: BOX BOUNDS xy xz yz pp pp pp
0 5.38 0
0 5.38 0
0 5.38 0
ITEM: ATOMS element x y z q 
  Fe     0.0007979321     0.0014958654     5.3785335755     0.3597289091 
  Fe     2.6896906991     0.0008472756     2.6889442685     0.3596734093 
  Fe     0.0000646921     2.6898696433     2.6888663028     0.3597227673 
  Fe     2.6897499041     2.6896025249     0.0000942909     0.3597180145 
   S     1.8185608081     1.8187015832     1.8194641924    -0.1799031613 
   S     3.5598252915     3.5595223811     3.5612887901    -0.1797816614 
   S     0.8714940986     3.5624132184     4.5069989342    -0.1798303543 
   S     4.5083493434     1.8194166612     0.8735941176    -0.1799085379 
   S     3.5608988617     4.5076316020     0.8737777029    -0.1797920739 
   S     1.8191262148     0.8714662147     4.5116039077    -0.1799144000 
   S     4.5106464393     0.8691626688     3.5628687746    -0.1799102214 
   S     0.8705708359     4.5085240943     1.8166064636    -0.1798026900 
ITEM: TIMESTEP
600
ITEM: NUMBER OF ATOMS
12
ITEM: BOX BOUNDS xy xz yz pp pp pp
0 5.38 0
0 5.38 0
0 5.38 0
ITEM: ATOMS element x y z q 
  Fe     0.0009573696     0.0017948699     5.3782405004     0.3597326957 
  Fe     2.6896288562     0.0010166680     2.6887332863     0.3596652119 
  Fe     0.0000776138     2.6898436028     2.6886397242     0.3597252969 
  Fe     2.6896999098     2.6895231055     0.0001131555     0.3597193194 
   S     1.8185864198     1.8187553594     1.8196703870    -0.1799127537 
   S     3.5594770215     3.5591135891     3.5612330518    -0.1797669865 
   S     0.8714794849     3.5625823405     4.5067122990    -0.1798249771 
   S     4.5083326259     1.8196132980     0.8739992536    -0.1799188117 
   S     3.5607653579     4.5074714368     0.8742195314    -0.1797794947 
   S     1.8192649582     0.8714459505     4.5122377999    -0.1799262602 
   S     4.5110889511     0.8686819945     3.5631288162    -0.1799211535 
   S     0.8703716680     4.5085423573     1.8162413782    -0.1797920863 
ITEM: TIMESTEP
700
ITEM: NUMBER OF ATOMS
12
ITEM: BOX BOUNDS xy xz yz pp pp pp
0 5.38 0
0 5.38 0
0 5.38 0
ITEM: ATOMS element x y z q 
  Fe     0.0011167064     0.0020937434     5.3779475776     0.3597343143 
  Fe     2.6895670297     0.0011860021     2.6885224217     0.3596553307 
  Fe     0.0000905248     2.6898175812     2.6884132631     0.3597257180 
  Fe     2.6896499341     2.6894437367     0.0001320230     0.3597186229 
   S     1.8186125141     1.8188096198     1.8198769872    -0.1799212559 
   S     3.5591283796     3.5587044649     3.5611768110    -0.1797512251 
   S     0.8714644013     3.5627509193     4.5064262473    -0.1798187618 
   S     4.5083163747     1.8198103129     0.8744037275    -0.1799282241 
   S     3.5606314803     4.5073118105     0.8746606777    -0.1797658803 
   S     1.8194041935     0.8714251777     4.5128719103    -0.1799370553 
   S     4.5115317683     0.8682010302     3.5633881998    -0.1799311049 
   S     0.8701721023     4.5085611015     1.8158769108    -0.1797804784 
ITEM: TIMESTEP
800
ITEM: NUMBER OF ATOMS
12
ITEM: BOX BOUNDS xy xz yz pp pp pp
0 5.38 0
0 5.38 0
0 5.38 0
ITEM: ATOMS element x y z q 
  Fe     0.0012759108     0.0023924350     5.3776548610     0.3597386546 
  Fe     2.6895052282     0.0013552510     2.6883117148     0.3596443481 
  Fe     0.0001034222     2.6897915838     2.6881869613     0.3597275509 
  Fe     2.6895999844     2.6893644344     0.0001508923     0.3597163264 
   S     1.8186390889     1.8188643598     1.8200839600    -0.1799310851 
   S     3.5587794184     3.5582950731     3.5611200699    -0.1797368179 
   S     0.8714488522     3.5629189289     4.5061408217    -0.1798119931 
   S     4.5083005886     1.8200076691     0.8748074709    -0.1799371029 
   S     3.5604972595     4.5071527480     0.8751010663    -0.1797530089 
   S     1.8195439081     0.8714038953     4.5135061334    -0.1799485156 
   S     4.5119748188     0.8677198552     3.5636468719    -0.1799402508 
   S     0.8699721719     4.5085803253     1.8155131175    -0.1797681058 
ITEM: TIMESTEP
900
ITEM: NUMBER OF ATOMS
12
ITEM: BOX BOUNDS xy xz yz pp pp pp
0 5.38 0
0 5.38 0
0 5.38 0
ITEM: ATOMS element x y z q 
  Fe     0.0014349422     0.0026908776     5.3773624203     0.3597408235 
  Fe     2.6894434634     0.0015243790     2.6881012172     0.3596394935 
  Fe     0.0001163023     2.6897656175     2.6879608727     0.3597294103 
  Fe     2.6895500711     2.6892852187     0.0001697615     0.3597206985 
   S     1.8186661405     1.8189195719     1.8202912608    -0.1799398265 
   S     3.5584302095     3.5578855009     3.5610628338    -0.1797213687 
   S     0.8714328431     3.5630863345     4.5058560799    -0.1798082676 
   S     4.5082852671     1.8202053189     0.8752103941    -0.1799490091 
   S     3.5603627337     4.5069942820     0.8755405982    -0.1797400939 
   S     1.8196840818     0.8713821035     4.5141403296    -0.1799600767 
   S     4.5124180064     0.8672385742     3.5639047652    -0.1799527524 
   S     0.8697719205     4.5086000263     1.8151500738    -0.1797590310 
ITEM: TIMESTEP
1000
ITEM: NUMBER OF ATOMS
12
ITEM: BOX BOUNDS xy xz yz pp pp pp
0 5.38 0
0 5.38 0
0 5.38 0
ITEM: ATOMS element x y z q 
  Fe     0.0015937517     0.0029889876     5.3770703414     0.3597440696 
  Fe     2.6893817506     0.0016933406     2.6878909922     0.3596310566 
  Fe     0.0001291609     2.6897396903     2.6877350638     0.3597316603 
  Fe     2.6895002073     2.6892061143     0.0001886276     0.3597214072 
   S     1.8186936633     1.8189752450     1.8204988335    -0.1799490926 
   S     3.5580808441     3.5574758581     3.5610051116    -0.1797064363 
   S     0.8714163804     3.5632530921     4.5055720956    -0.1798027778 
   S     4.5082704102     1.8204032034     0.8756123851    -0.1799591100 
   S     3.5602279484     4.5068364543     0.8759791502    -0.1797274424 
   S     1.8198246863     0.8713598038     4.5147743235    -0.1799717542 
   S     4.5128612102     0.8667573194     3.5641617981    -0.1799634350 
   S     0.8695714035     4.5086202003     1.8147878752    -0.1797481454 
