# generated by aiida_lammps

2 atoms
2 atom types

0.0         3.8325187540 xlo xhi
0.0         3.3190586015 ylo yhi
0.0         3.1292384590 zlo zhi
        1.9162593770         1.9162593770         1.1063528672 xy xz yz

Masses

1        55.8450000000 
2        32.0650000000 

Atoms

1 1         0.0000000000         0.0000000000         0.0000000000
2 2         5.7487781310         3.3190586015         2.3469288443
