# generated by aiida_lammps

12 atoms
2 atom types

0.0         5.3800000000 xlo xhi
0.0         5.3800000000 ylo yhi
0.0         5.3800000000 zlo zhi
Masses

1        55.8450000000 
2        32.0650000000 

Atoms

1 1         0.0000000000         0.0000000000         0.0000000000
2 1         2.6900000000         0.0000000000         2.6900000000
3 1         0.0000000000         2.6900000000         2.6900000000
4 1         2.6900000000         2.6900000000         0.0000000000
5 2         1.8184400000         1.8184400000         1.8184400000
6 2         3.5615600000         3.5615600000         3.5615600000
7 2         0.8715600000         3.5615600000         4.5084400000
8 2         4.5084400000         1.8184400000         0.8715600000
9 2         3.5615600000         4.5084400000         0.8715600000
10 2         1.8184400000         0.8715600000         4.5084400000
11 2         4.5084400000         0.8715600000         3.5615600000
12 2         0.8715600000         4.5084400000         1.8184400000
