# generated by aiida_lammps

14 atoms
2 atom types

0.0         6.9833865700 xlo xhi
0.0         6.0477901700 ylo yhi
0.0         5.7019112600 zlo zhi
        3.4916932900         3.4916932900         2.0159300600 xy xz yz

Masses

1        55.8450000000 
2        32.0650000000 

Atoms

1 1         1.7458466400         1.0079650300         0.7127389100
2 1        12.2209265000         7.0557552000         4.9891723500
3 1         6.9833865700         4.0318601200         2.8509556300
4 1         5.2375399300         1.0079650300         2.8509556300
5 1         3.4916932900         4.0318601200         2.8509556300
6 1         5.2375399300         3.0238950900         0.0000000000
7 2         3.4986766700         2.0199619200         1.4283287700
8 2         8.7292332100         3.0319588100         4.2735824900
9 2         5.2375399300         5.0317614300         1.4283287700
10 2         6.9764031800         2.0199619200         1.4283287700
11 2         6.9903699600         6.0437583100         4.2735824900
12 2        10.4680964700         6.0437583100         4.2735824900
13 2         8.7292332100         5.0398251500         1.4340306800
14 2         5.2375399300         3.0238950900         4.2678805800
