LAMMPS (19 Jul 2019)
#------------------------Start of the Control information------------------------#
clear
units metal
newton on
timestep 1e-05
#-------------------------End of the Control information-------------------------#
#-----------------------Start of the Structure information-----------------------#
box tilt small
dimension 3
boundary p p p
atom_style atomic
read_data temp.structure
  triclinic box = (0 0 0) to (3.6 3.6 3.6) with tilt (0 0 0)
  1 by 1 by 1 MPI processor grid
  reading atoms ...
  4 atoms
  read_data CPU = 0.000927289 secs
#------------------------End of the Structure information------------------------#
#-------------------------Start of Potential information-------------------------#
pair_style eam/alloy
pair_coeff * * EAM_WCo.txt Co
#--------------------------End of Potential information--------------------------#
#--------------------------Start of the Fix information--------------------------#
fix box_relax_all_aiida all box/relax iso 0.0 vmax 0.001
#---------------------------End of the Fix information---------------------------#
#------------------------Start of the Compute information------------------------#
compute pe_atom_all_aiida all pe/atom
compute ke_atom_all_aiida all ke/atom
compute stress_atom_all_aiida all stress/atom NULL
compute pressure_all_aiida all pressure thermo_temp
#-------------------------End of the Compute information-------------------------#
#------------------------Start of the Thermo information-------------------------#
thermo_style custom step pe ke press pxx pyy pzz etotal c_pressure_all_aiida c_pressure_all_aiida[1] c_pressure_all_aiida[2] c_pressure_all_aiida[3] c_pressure_all_aiida[4] c_pressure_all_aiida[5] c_pressure_all_aiida[6]
thermo 100
#-------------------------End of the Thermo information--------------------------#
#-------------------------Start of the Dump information--------------------------#
dump aiida all custom 1000 temp.dump id type element x y z c_pe_atom_all_aiida c_ke_atom_all_aiida c_stress_atom_all_aiida[1] c_stress_atom_all_aiida[2] c_stress_atom_all_aiida[3] c_stress_atom_all_aiida[4] c_stress_atom_all_aiida[5] c_stress_atom_all_aiida[6]
#--------------------------End of the Dump information---------------------------#
#--------------------------Start of the MD information---------------------------#
fix npt_all_aiida all npt temp 300 300 100  iso 0.0 0.0 1000.0
velocity all create 300 4261
reset_timestep 0
run_style verlet
run 5000
Neighbor list info ...
  update every 1 steps, delay 10 steps, check yes
  max neighbors/atom: 2000, page size: 100000
  master list distance cutoff = 8.1287
  ghost atom cutoff = 8.1287
  binsize = 4.06435, bins = 1 1 1
  1 neighbor lists, perpetual/occasional/extra = 1 0 0
  (1) pair eam/alloy, perpetual
      attributes: half, newton on
      pair build: half/bin/newton/tri
      stencil: half/bin/3d/newton/tri
      bin: standard
Per MPI rank memory allocation (min/avg/max) = 6.114 | 6.114 | 6.114 Mbytes
Step PotEng KinEng Press Pxx Pyy Pzz TotEng c_pressure_all_aiida c_pressure_all_aiida[1] c_pressure_all_aiida[2] c_pressure_all_aiida[3] c_pressure_all_aiida[4] c_pressure_all_aiida[5] c_pressure_all_aiida[6] 
       0   -17.566918   0.11633413   -65748.203    -65784.86   -66151.806   -65307.943   -17.450584   -65748.203    -65784.86   -66151.806   -65307.943   -968.80346   -1835.8858   -293.61095 
     100   -17.566649    0.1160651   -65722.241   -65754.123   -66129.949    -65282.65   -17.450584   -65722.241   -65754.123   -66129.949    -65282.65   -973.77775   -1846.5829   -291.26981 
     200   -17.565845   0.11526118   -65642.472   -65658.395   -66064.381    -65204.64   -17.450584   -65642.472   -65658.395   -66064.381    -65204.64   -989.84677   -1879.7798   -286.53978 
     300   -17.564514   0.11393034   -65509.278   -65503.521   -65950.108   -65074.203   -17.450584   -65509.278   -65503.521   -65950.108   -65074.203    -1013.207   -1928.6061   -279.42196 
     400   -17.562669   0.11208533   -65326.317    -65286.71   -65799.706   -64892.536   -17.450584   -65326.317    -65286.71   -65799.706   -64892.536   -1046.2195   -2006.3727    -266.3884 
     500    -17.56033   0.10974542   -65103.285   -65015.784   -65618.122   -64675.948   -17.450584   -65103.285   -65015.784   -65618.122   -64675.948   -1090.1711   -2099.9919   -252.56792 
     600   -17.557518   0.10693394   -64826.512   -64691.917   -65387.371   -64400.247   -17.450584   -64826.512   -64691.917   -65387.371   -64400.247   -1142.3624   -2210.0802   -232.78862 
     700   -17.554263   0.10367882    -64503.92    -64308.09   -65112.822   -64090.848   -17.450584    -64503.92    -64308.09   -65112.822   -64090.848   -1202.5624   -2334.5663   -209.76166 
     800   -17.550597   0.10001284   -64142.907   -63875.853   -64817.895   -63734.973   -17.450584   -64142.907   -63875.853   -64817.895   -63734.973   -1269.4545   -2484.8578   -192.78731 
     900   -17.546557  0.095973035   -63750.598    -63403.29   -64494.735   -63353.771   -17.450584   -63750.598    -63403.29   -64494.735   -63353.771    -1340.536   -2643.9747   -159.40609 
    1000   -17.542184  0.091600017   -63327.213   -62897.264   -64147.856   -62936.518   -17.450584   -63327.213   -62897.264   -64147.856   -62936.518   -1420.5687   -2825.0555   -133.43268 
    1100   -17.537523  0.086938814     -62875.8   -62354.227   -63772.241    -62500.93   -17.450584     -62875.8   -62354.227   -63772.241    -62500.93   -1509.9058   -3016.8779   -104.75164 
    1200    -17.53262  0.082035633    -62399.47   -61772.191   -63382.067   -62044.153   -17.450584    -62399.47   -61772.191   -63382.067   -62044.153   -1605.6126   -3214.2974   -63.488505 
    1300   -17.527525  0.076941123   -61903.337   -61164.532   -62983.744   -61561.734   -17.450584   -61903.337   -61164.532   -62983.744   -61561.734   -1702.6985   -3426.0733   -29.939054 
    1400   -17.522291   0.07170639   -61400.828    -60545.49   -62570.113   -61086.882   -17.450584   -61400.828    -60545.49   -62570.113   -61086.882   -1797.4703   -3640.8729    11.959351 
    1500   -17.516969  0.066385324   -60887.133   -59915.081   -62146.795   -60599.524   -17.450584   -60887.133   -59915.081   -62146.795   -60599.524   -1899.5853   -3863.7463     46.12708 
    1600   -17.511616  0.061031577    -60367.33   -59266.038   -61731.744   -60104.208   -17.450584    -60367.33   -59266.038   -61731.744   -60104.208   -2009.7436   -4097.8181     84.02951 
    1700   -17.506284  0.055699954   -59868.782   -58638.395   -61331.629   -59636.322   -17.450584   -59868.782   -58638.395   -61331.629   -59636.322   -2107.7149   -4317.7541    123.82406 
    1800   -17.501029  0.050444596   -59362.151   -57993.969   -60927.564   -59164.919   -17.450584   -59362.151   -57993.969   -60927.564   -59164.919   -2211.7169   -4554.8479    171.60175 
    1900   -17.495902  0.045318363    -58877.72   -57368.606   -60540.936   -58723.618   -17.450584    -58877.72   -57368.606   -60540.936   -58723.618   -2314.4932   -4777.1136     214.5613 
    2000   -17.490958  0.040373412   -58418.833   -56768.255   -60185.526   -58302.719   -17.450584   -58418.833   -56768.255   -60185.526   -58302.719   -2406.5373   -4996.5813    259.87776 
    2100   -17.486244   0.03565954   -57973.735   -56177.276   -59838.529     -57905.4   -17.450584   -57973.735   -56177.276   -59838.529     -57905.4   -2506.9093    -5212.599      301.047 
    2200   -17.481807  0.031223281   -57559.197   -55615.466   -59518.743   -57543.382   -17.450584   -57559.197   -55615.466   -59518.743   -57543.382   -2601.0953   -5421.0642    343.15566 
    2300   -17.477692  0.027107811   -57177.922   -55086.132   -59230.515   -57217.119   -17.450584   -57177.922   -55086.132   -59230.515   -57217.119   -2689.3863   -5614.3659    383.75555 
    2400   -17.473937  0.023353261   -56832.654   -54591.523   -58982.191   -56924.249   -17.450584   -56832.654   -54591.523   -58982.191   -56924.249   -2770.4013   -5792.4258     427.0859 
    2500   -17.470579  0.019995313   -56532.563   -54144.199   -58772.925   -56680.565   -17.450584   -56532.563   -54144.199   -58772.925   -56680.565   -2843.1766   -5952.0682    470.07769 
    2600   -17.467649  0.017064736   -56277.079   -53740.328   -58599.938   -56490.971   -17.450584   -56277.079   -53740.328   -58599.938   -56490.971   -2909.2129   -6106.7562    513.74034 
    2700   -17.465171  0.014587164    -56066.19   -53383.566   -58461.976    -56353.03   -17.450584    -56066.19   -53383.566   -58461.976    -56353.03   -2966.8603   -6245.5532    553.72762 
    2800   -17.463167  0.012582962   -55896.669   -53070.921   -58360.328   -56258.758   -17.450584   -55896.669   -53070.921   -58360.328   -56258.758   -3015.1991   -6361.9889    592.58331 
    2900   -17.461651  0.011066833   -55773.504   -52806.909   -58301.571   -56212.032   -17.450584   -55773.504   -52806.909   -58301.571   -56212.032   -3052.7787   -6456.9952    631.23948 
    3000   -17.460632  0.010047783   -55702.238   -52599.181   -58289.794   -56217.739   -17.450584   -55702.238   -52599.181   -58289.794   -56217.739   -3081.3004   -6532.8565    668.98523 
    3100   -17.460113 0.0095290234   -55683.144   -52449.653   -58323.758   -56276.019   -17.450584   -55683.144   -52449.653   -58323.758   -56276.019   -3100.3668   -6586.8159    704.65606 
    3200   -17.460092 0.0095079893   -55714.062   -52356.719   -58400.186   -56385.281   -17.450584   -55714.062   -52356.719   -58400.186   -56385.281   -3110.3233   -6617.0255    737.47145 
    3300   -17.460561 0.0099764599   -55790.896   -52316.485   -58514.702     -56541.5   -17.450584   -55790.896   -52316.485   -58514.702     -56541.5    -3109.387   -6622.1633    768.94265 
    3400   -17.461505  0.010920514   -55913.553    -52328.42   -58667.601   -56744.637   -17.450584   -55913.553    -52328.42   -58667.601   -56744.637   -3096.6654   -6602.9764    798.69664 
    3500   -17.462905  0.012320813   -56082.386   -52393.097   -58860.233   -56993.828   -17.450584   -56082.386   -52393.097   -58860.233   -56993.828   -3074.4264   -6558.6664    826.33739 
    3600   -17.464737  0.014153044    -56291.02   -52505.511   -59084.583   -57282.966   -17.450584    -56291.02   -52505.511   -59084.583   -57282.966    -3040.143   -6488.8504    852.20247 
    3700   -17.466973  0.016388377   -56534.272   -52661.722   -59333.495   -57607.598   -17.450584   -56534.272   -52661.722   -59333.495   -57607.598   -2992.1027   -6396.3687    874.25483 
    3800   -17.469578  0.018993758    -56816.58   -52868.378   -59615.561     -57965.8   -17.450584    -56816.58   -52868.378   -59615.561     -57965.8   -2938.4127   -6282.6641    893.64441 
    3900   -17.472516  0.021932223   -57127.885   -53112.008    -59918.41   -58353.235   -17.450584   -57127.885   -53112.008    -59918.41   -58353.235   -2868.0842   -6144.7654    910.86491 
    4000   -17.475748  0.025163917   -57465.334   -53391.109   -60239.845   -58765.048   -17.450584   -57465.334   -53391.109   -60239.845   -58765.048   -2787.7635   -5982.3773    923.71121 
    4100    -17.47923  0.028645661   -57835.844   -53716.885   -60594.588   -59196.059   -17.450584   -57835.844   -53716.885   -60594.588   -59196.059   -2706.1349   -5803.4791      930.467 
    4200   -17.482917  0.032332943   -58209.434    -54051.25   -60942.379   -59634.672   -17.450584   -58209.434    -54051.25   -60942.379   -59634.672   -2609.2979   -5602.2594     938.7493 
    4300   -17.486764  0.036179331   -58606.366   -54427.092   -61307.319   -60084.686   -17.450584   -58606.366   -54427.092   -61307.319   -60084.686   -2504.5335   -5376.6296    942.39362 
    4400   -17.490721  0.040137034    -59013.13   -54821.768   -61673.772   -60543.849   -17.450584    -59013.13   -54821.768   -61673.772   -60543.849   -2392.4523   -5143.5767    946.14865 
    4500   -17.494743  0.044158855   -59416.013   -55226.984   -62032.966   -60988.088   -17.450584   -59416.013   -55226.984   -62032.966   -60988.088   -2276.0218   -4886.8546    938.31417 
    4600   -17.498782  0.048197656    -59823.98   -55646.686   -62394.421   -61430.833   -17.450584    -59823.98   -55646.686   -62394.421   -61430.833   -2147.8132   -4616.0028    931.58329 
    4700    -17.50279  0.052206157   -60228.539   -56074.321   -62749.479   -61861.817   -17.450584   -60228.539   -56074.321   -62749.479   -61861.817   -2019.3263   -4334.9878    925.58857 
    4800   -17.506723  0.056139255   -60616.181    -56496.14   -63084.235   -62268.168   -17.450584   -60616.181    -56496.14   -63084.235   -62268.168   -1884.7159   -4043.8155    908.07387 
    4900   -17.510538  0.059953842   -60998.054   -56926.184   -63403.866   -62664.111   -17.450584   -60998.054   -56926.184   -63403.866   -62664.111   -1744.5319   -3741.0193     900.0349 
    5000   -17.514192  0.063608286   -61353.826   -57340.453   -63702.654   -63018.371   -17.450584   -61353.826   -57340.453   -63702.654   -63018.371    -1602.112   -3438.0051    873.60792 
Loop time of 0.110005 on 1 procs for 5000 steps with 4 atoms

Performance: 39.271 ns/day, 0.611 hours/ns, 45452.422 timesteps/s
99.4% CPU use with 1 MPI tasks x no OpenMP threads

MPI task timing breakdown:
Section |  min time  |  avg time  |  max time  |%varavg| %total
---------------------------------------------------------------
Pair    | 0.078086   | 0.078086   | 0.078086   |   0.0 | 70.98
Neigh   | 0          | 0          | 0          |   0.0 |  0.00
Comm    | 0.017121   | 0.017121   | 0.017121   |   0.0 | 15.56
Output  | 0.0019105  | 0.0019105  | 0.0019105  |   0.0 |  1.74
Modify  | 0.0082054  | 0.0082054  | 0.0082054  |   0.0 |  7.46
Other   |            | 0.004682   |            |       |  4.26

Nlocal:    4 ave 4 max 4 min
Histogram: 1 0 0 0 0 0 0 0 0 0
Nghost:    662 ave 662 max 662 min
Histogram: 1 0 0 0 0 0 0 0 0 0
Neighs:    400 ave 400 max 400 min
Histogram: 1 0 0 0 0 0 0 0 0 0

Total # of neighbors = 400
Ave neighs/atom = 100
Neighbor list builds = 0
Dangerous builds = 0
#---------------------------End of the MD information----------------------------#
#--------------------Start of the Final Variables information--------------------#
variable final_step equal step
variable final_pe equal pe
variable final_ke equal ke
variable final_press equal press
variable final_pxx equal pxx
variable final_pyy equal pyy
variable final_pzz equal pzz
variable final_etotal equal etotal
variable final_c_pressure_all_aiida equal c_pressure_all_aiida
variable final_c_pressure_all_aiida_1 equal c_pressure_all_aiida[1]
variable final_c_pressure_all_aiida_2 equal c_pressure_all_aiida[2]
variable final_c_pressure_all_aiida_3 equal c_pressure_all_aiida[3]
variable final_c_pressure_all_aiida_4 equal c_pressure_all_aiida[4]
variable final_c_pressure_all_aiida_5 equal c_pressure_all_aiida[5]
variable final_c_pressure_all_aiida_6 equal c_pressure_all_aiida[6]
#---------------------End of the Final Variables information---------------------#
#---------------Start of the Printing Final Variables information----------------#
print "#Final results" file aiida_lammps.yaml
#Final results
print "final_step: ${final_step}" append aiida_lammps.yaml
final_step: 5000
print "final_pe: ${final_pe}" append aiida_lammps.yaml
final_pe: -17.5141924945569
print "final_ke: ${final_ke}" append aiida_lammps.yaml
final_ke: 0.0636082860772328
print "final_press: ${final_press}" append aiida_lammps.yaml
final_press: -61353.82560727
print "final_pxx: ${final_pxx}" append aiida_lammps.yaml
final_pxx: -57340.4525179122
print "final_pyy: ${final_pyy}" append aiida_lammps.yaml
final_pyy: -63702.6536853082
print "final_pzz: ${final_pzz}" append aiida_lammps.yaml
final_pzz: -63018.3706185898
print "final_etotal: ${final_etotal}" append aiida_lammps.yaml
final_etotal: -17.4505842084796
print "final_c_pressure_all_aiida: ${final_c_pressure_all_aiida}" append aiida_lammps.yaml
final_c_pressure_all_aiida: -61353.82560727
print "final_c_pressure_all_aiida_1: ${final_c_pressure_all_aiida_1}" append aiida_lammps.yaml
final_c_pressure_all_aiida_1: -57340.4525179122
print "final_c_pressure_all_aiida_2: ${final_c_pressure_all_aiida_2}" append aiida_lammps.yaml
final_c_pressure_all_aiida_2: -63702.6536853082
print "final_c_pressure_all_aiida_3: ${final_c_pressure_all_aiida_3}" append aiida_lammps.yaml
final_c_pressure_all_aiida_3: -63018.3706185898
print "final_c_pressure_all_aiida_4: ${final_c_pressure_all_aiida_4}" append aiida_lammps.yaml
final_c_pressure_all_aiida_4: -1602.11196923013
print "final_c_pressure_all_aiida_5: ${final_c_pressure_all_aiida_5}" append aiida_lammps.yaml
final_c_pressure_all_aiida_5: -3438.00514080948
print "final_c_pressure_all_aiida_6: ${final_c_pressure_all_aiida_6}" append aiida_lammps.yaml
final_c_pressure_all_aiida_6: 873.607919841187
#----------------End of the Printing Final Variables information-----------------#
#---------------------Start of the write restart information---------------------#
write_restart restart.aiida
#----------------------End of the write restart information----------------------#

Total wall time: 0:00:00
