ITEM: TIMESTEP
1000
ITEM: NUMBER OF ATOMS
12
ITEM: BOX BOUNDS xy xz yz pp pp pp
0 5.38 0
0 5.38 0
0 5.38 0
ITEM: ATOMS element x y z q
Fe     0.0015937517     0.0029889876     5.3770703414     0.3597440696
Fe     2.6893817506     0.0016933406     2.6878909922     0.3596310566
Fe     0.0001291609     2.6897396903     2.6877350638     0.3597316603
Fe     2.6895002073     2.6892061143     0.0001886276     0.3597214072
S     1.8186936633     1.8189752450     1.8204988335    -0.1799490926
S     3.5580808441     3.5574758581     3.5610051116    -0.1797064363
S     0.8714163804     3.5632530921     4.5055720956    -0.1798027778
S     4.5082704102     1.8204032034     0.8756123851    -0.1799591100
S     3.5602279484     4.5068364543     0.8759791502    -0.1797274424
S     1.8198246863     0.8713598038     4.5147743235    -0.1799717542
S     4.5128612102     0.8667573194     3.5641617981    -0.1799634350
S     0.8695714035     4.5086202003     1.8147878752    -0.1797481454