LAMMPS (3 Nov 2022)
  In general, for best performance with OpenMP 4.0 or better set OMP_PROC_BIND=spread and OMP_PLACES=threads
  For best performance with OpenMP 3.1 set OMP_PROC_BIND=true
  For unit testing set OMP_PROC_BIND=false
  using 1 OpenMP thread(s) per MPI task
Lattice spacing in x,y,z = 1.6795962 1.6795962 1.6795962
Created orthogonal box = (0 0 0) to (83.97981 83.97981 83.97981)
  6 by 4 by 5 MPI processor grid
Created 500000 atoms
  using lattice units in orthogonal box = (0 0 0) to (83.97981 83.97981 83.97981)
  create_atoms CPU = 0.003 seconds
Generated 0 of 0 mixed pair_coeff terms from geometric mixing rule
Neighbor list info ...
  update: every = 20 steps, delay = 0 steps, check = no
  max neighbors/atom: 2000, page size: 100000
  master list distance cutoff = 2.8
  ghost atom cutoff = 2.8
  binsize = 1.4, bins = 60 60 60
  1 neighbor lists, perpetual/occasional/extra = 1 0 0
  (1) pair lj/cut/kk, perpetual
      attributes: half, newton on, kokkos_device
      pair build: half/bin/kk/device
      stencil: half/bin/3d
      bin: kk/device
Setting up Verlet run ...
  Unit style    : lj
  Current step  : 0
  Time step     : 0.005
Per MPI rank memory allocation (min/avg/max) = 2.039 | 2.065 | 2.082 Mbytes
   Step          Temp          E_pair         E_mol          TotEng         Press
         0   1.44          -6.7733681      0             -4.6133724     -5.0196717
      1000   0.70380068    -5.6761498      0             -4.6204508      0.70370101
Loop time of 3.07792 on 120 procs for 1000 steps with 500000 atoms

Performance: 140354.357 tau/day, 324.894 timesteps/s, 162.447 Matom-step/s
99.4% CPU use with 120 MPI tasks x 1 OpenMP threads

MPI task timing breakdown:
Section |  min time  |  avg time  |  max time  |%varavg| %total
---------------------------------------------------------------
Pair    | 1.6398     | 1.7065     | 1.7679     |   2.2 | 55.44
Neigh   | 0.33289    | 0.34561    | 0.39959    |   1.4 | 11.23
Comm    | 0.8538     | 0.95433    | 1.0342     |   3.8 | 31.01
Output  | 0.00017888 | 0.00025242 | 0.0003793  |   0.0 |  0.01
Modify  | 0.053668   | 0.055804   | 0.058023   |   0.4 |  1.81
Other   |            | 0.01547    |            |       |  0.50

Nlocal:        4166.67 ave        4239 max        4109 min
Histogram: 5 4 16 24 34 11 14 8 1 3
Nghost:        5717.37 ave        5790 max        5627 min
Histogram: 3 2 8 10 21 20 31 11 10 4
Neighs:         156192 ave      160654 max      152682 min
Histogram: 4 6 13 25 27 23 12 7 2 1

Total # of neighbors = 18743047
Ave neighs/atom = 37.486094
Neighbor list builds = 50
Dangerous builds not checked
final_etotal: -4.62045083768868
Total wall time: 0:00:03
